8
# linear chain of 8 atoms in a stair step arrangement
2   1   1   0   0
7   1   3   3   0  # some atoms out of order for testing
3   1   1   1   0
4   1   2   1   0
6   1   3   2   0
8   1   4   3   0
1   1   0   0   0
5   1   2   2   0

7
1 2
7 8  # some bonds out of order for testing
7 6
3 2  # another test comment
3 4
5 6
5 4
